[ moleculetype ]
; name    nrexcl
ACE         3

[ atoms ]
;   nr  type        resi  res  atom  cgnr     charge      mass
     1  opls_234     1    ACE   N     1       -0.3758     14.00674
     2  opls_233     1    ACE   C     2       -0.0450     12.01100
     3  opls_135     1    ACE   C     3        0.2087     12.01100
     4  opls_140     1    ACE   H     4        0.0707      1.00800
     5  opls_140     1    ACE   H     5        0.0707      1.00800
     6  opls_140     1    ACE   H     6        0.0707      1.00800

[ bonds ]
;   ai     aj funct   r             k
     1      2   1 ;    1.1535e-01    7.9881e+05 ;      N - C1
     2      3   1 ;    1.4671e-01    3.1095e+05 ;      C1 - C
     3      4   1 ;    1.0969e-01    2.7665e+05 ;      C - H
     3      5   1 ;    1.0969e-01    2.7665e+05 ;      C - H1
     3      6   1 ;    1.0969e-01    2.7665e+05 ;      C - H2

[ pairs ]
;   ai     aj    funct
     1      4      1
     1      5      1
     1      6      1

[ angles ]
;   ai     aj     ak    funct   theta         cth
     1      2      3      1 ;    1.7858e+02    4.8534e+02
     2      3      4      1 ;    1.0941e+02    4.0501e+02
     2      3      5      1 ;    1.0941e+02    4.0501e+02
     2      3      6      1 ;    1.0941e+02    4.0501e+02
     4      3      5      1 ;    1.0758e+02    3.2970e+02
     4      3      6      1 ;    1.0758e+02    3.2970e+02
     5      3      6      1 ;    1.0758e+02    3.2970e+02

[ dihedrals ]
;    i      j      k      l   func   phase     kd      pn
     1      2      3      4      3 ;   180.00   0.00000   2
     1      2      3      5      3 ;   180.00   0.00000   2
     1      2      3      6      3 ;   180.00   0.00000   2