[ moleculetype ]
; Name               nrexcl
IBU                   3

[ atoms ]
;   nr       type  resnr residue  atom   cgnr     charge       mass  
    1 opls_802       1   IBU C         1       0.4383      12.0110
    2 opls_803       1   IBU C         1      -0.0658      12.0110
    3 opls_805       1   IBU C         1      -0.2296      12.0110
    4 opls_806       1   IBU C         1      -0.0891      12.0110
    5 opls_811       1   IBU C         1      -0.1101      12.0110
    6 opls_812       1   IBU C         1      -0.1309      12.0110
    7 opls_814       1   IBU C         1      -0.1439      12.0110
    8 opls_816       1   IBU C         1      -0.1454      12.0110
    9 opls_818       1   IBU C         1      -0.0635      12.0110
   10 opls_820       1   IBU C         1      -0.1400      12.0110
   11 opls_821       1   IBU C         1      -0.1054      12.0110
   12 opls_824       1   IBU C         1      -0.2397      12.0110
   13 opls_825       1   IBU C         1      -0.2353      12.0110
   14 opls_801       1   IBU O         1      -0.5594      15.9990
   15 opls_804       1   IBU O         1      -0.4527      15.9990
   16 opls_800       1   IBU H         1       0.4482       1.0080
   17 opls_807       1   IBU H         1       0.1337       1.0080
   18 opls_808       1   IBU H         1       0.0974       1.0080
   19 opls_809       1   IBU H         1       0.0974       1.0080
   20 opls_810       1   IBU H         1       0.0974       1.0080
   21 opls_813       1   IBU H         1       0.1538       1.0080
   22 opls_815       1   IBU H         1       0.1468       1.0080
   23 opls_817       1   IBU H         1       0.1547       1.0080
   24 opls_819       1   IBU H         1       0.1537       1.0080
   25 opls_822       1   IBU H         1       0.0941       1.0080
   26 opls_823       1   IBU H         1       0.0941       1.0080
   27 opls_826       1   IBU H         1       0.0983       1.0080
   28 opls_827       1   IBU H         1       0.0838       1.0080
   29 opls_828       1   IBU H         1       0.0838       1.0080
   30 opls_829       1   IBU H         1       0.0838       1.0080
   31 opls_830       1   IBU H         1       0.0838       1.0080
   32 opls_831       1   IBU H         1       0.0838       1.0080
   33 opls_832       1   IBU H         2       0.0838       1.0080

[ bonds ]
    2     1     1      0.0945 462750.400
    3     2     1      0.1364 376560.000
    4     3     1      0.1522 265265.600
    5     3     1      0.1229 476976.000
    6     4     1      0.1529 224262.400
    7     4     1      0.1510 265265.600
    8     4     1      0.1090 284512.000
    9     6     1      0.1090 284512.000
   10     6     1      0.1090 284512.000
   11     6     1      0.1090 284512.000
   12     7     1      0.1400 392459.200
   13     7     1      0.1400 392459.200
   14    12     1      0.1080 307105.600
   15    12     1      0.1400 392459.200
   16    13     1      0.1080 307105.600
   17    13     1      0.1400 392459.200
   18    15     1      0.1080 307105.600
   19    15     1      0.1400 392459.200
   20    17     1      0.1080 307105.600
   21    19     1      0.1510 265265.600
   22    21     1      0.1529 224262.400
   23    21     1      0.1090 284512.000
   24    21     1      0.1090 284512.000
   25    22     1      0.1529 224262.400
   26    22     1      0.1529 224262.400
   27    22     1      0.1090 284512.000
   28    25     1      0.1090 284512.000
   29    25     1      0.1090 284512.000
   30    25     1      0.1090 284512.000
   31    26     1      0.1090 284512.000
   32    26     1      0.1090 284512.000
   33    26     1      0.1090 284512.000
   19    17     1      0.1400 392459.200

[ angles ]
;  ai    aj    ak funct            c0            c1            c2            c3 
    1     2     3     1    113.000    292.880
    2     3     4     1    108.000    585.760
    2     3     5     1    121.000    669.440
    3     4     6     1    111.100    527.184
    3     4     7     1    112.000    527.184
    3     4     8     1    109.500    292.880
    4     6     9     1    110.700    313.800
    4     6    10     1    110.700    313.800
    4     6    11     1    110.700    313.800
    4     7    12     1    120.000    585.760
    4     7    13     1    120.000    585.760
    7    12    14     1    120.000    292.880
    7    12    15     1    120.000    527.184
    7    13    16     1    120.000    292.880
    7    13    17     1    120.000    527.184
   12    15    18     1    120.000    292.880
   12    15    19     1    120.000    527.184
   13    17    20     1    120.000    292.880
   15    19    21     1    120.000    585.760
   19    21    22     1    114.000    527.184
   19    21    23     1    109.500    292.880
   19    21    24     1    109.500    292.880
   21    22    25     1    112.700    488.273
   21    22    26     1    112.700    488.273
   21    22    27     1    110.700    313.800
   22    25    28     1    110.700    313.800
   22    25    29     1    110.700    313.800
   22    25    30     1    110.700    313.800
   22    26    31     1    110.700    313.800
   22    26    32     1    110.700    313.800
   22    26    33     1    110.700    313.800
    7     4     8     1    109.500    292.880
   23    21    24     1    107.800    276.144
   22    21    23     1    110.700    313.800
    6     4     7     1    114.000    527.184
   28    25    30     1    107.800    276.144
   10     6    11     1    107.800    276.144
   25    22    27     1    110.700    313.800
    4     3     5     1    120.400    669.440
   31    26    33     1    107.800    276.144
   22    21    24     1    110.700    313.800
   26    22    27     1    110.700    313.800
   14    12    15     1    120.000    292.880
   16    13    17     1    120.000    292.880
   32    26    33     1    107.800    276.144
    9     6    10     1    107.800    276.144
    6     4     8     1    110.700    313.800
   28    25    29     1    107.800    276.144
   31    26    32     1    107.800    276.144
   25    22    26     1    112.700    488.273
    9     6    11     1    107.800    276.144
   18    15    19     1    120.000    292.880
   13    17    19     1    120.000    527.184
   15    19    17     1    120.000    527.184
   19    17    20     1    120.000    292.880
   29    25    30     1    107.800    276.144
   17    19    21     1    120.000    585.760
   12     7    13     1    120.000    527.184

[ dihedrals ]
; IMPROPER DIHEDRAL ANGLES 
;  ai    aj    ak    al funct            c0            c1            c2            c3            c4            c5
    19    15    12    18    4        180.000     10.460     2  
    17    13     7    16    4        180.000     10.460     2  
    15    12     7    14    4        180.000     10.460     2  
    13     7     4    12    4        180.000     10.460     2  
    21    19    15    17    4        180.000     10.460     2  
    20    17    13    19    4        180.000     10.460     2  
     5     3     2     4    4        180.000     43.932     2  

[ dihedrals ]
; PROPER DIHEDRAL ANGLES
;  ai    aj    ak    al funct            c0            c1            c2            c3            c4            c5
   15   19   17   13        3      30.334   0.000  -30.334  -0.000  -0.000   0.000
   19   15   12    7        3      30.334   0.000  -30.334  -0.000  -0.000   0.000
   17   19   15   12        3      30.334   0.000  -30.334  -0.000  -0.000   0.000
   19   17   13    7        3      30.334   0.000  -30.334  -0.000  -0.000   0.000
   15   12    7   13        3      30.334   0.000  -30.334  -0.000  -0.000   0.000
   17   13    7   12        3      30.334   0.000  -30.334  -0.000  -0.000   0.000
   17   13    7    4        3      30.334   0.000  -30.334  -0.000  -0.000   0.000
   15   12    7    4        3      30.334   0.000  -30.334  -0.000  -0.000   0.000
   19   17   13   16        3      30.334   0.000  -30.334  -0.000  -0.000   0.000
   19   15   12   14        3      30.334   0.000  -30.334  -0.000  -0.000   0.000
   12    7    4    3        3       0.000   0.000   0.000  -0.000  -0.000   0.000
   13    7    4    3        3       0.000   0.000   0.000  -0.000  -0.000   0.000
   12    7    4    6        3       0.000   0.000   0.000  -0.000  -0.000   0.000
   13    7    4    6        3       0.000   0.000   0.000  -0.000  -0.000   0.000
   12    7    4    8        3       0.000   0.000   0.000  -0.000  -0.000   0.000
   13    7    4    8        3       0.000   0.000   0.000  -0.000  -0.000   0.000
    7    4    3    5        3       2.284   0.000  -2.284  -0.000  -0.000   0.000
    7    4    3    2        3       2.284   0.000  -2.284  -0.000  -0.000   0.000
    4    3    2    1        3      26.150  -3.138  -23.012  -0.000  -0.000   0.000
   21   19   17   13        3      30.334   0.000  -30.334  -0.000  -0.000   0.000
   21   19   15   12        3      30.334   0.000  -30.334  -0.000  -0.000   0.000
   21   19   15   18        3      30.334   0.000  -30.334  -0.000  -0.000   0.000
   21   19   17   20        3      30.334   0.000  -30.334  -0.000  -0.000   0.000
    6    4    3    5        3       0.000   0.000   0.000  -0.000  -0.000   0.000
    6    4    3    2        3       5.318   0.732  -2.284  -3.766  -0.000   0.000
   22   21   19   17        3       0.000   0.000   0.000  -0.000  -0.000   0.000
   22   21   19   15        3       0.000   0.000   0.000  -0.000  -0.000   0.000
   25   22   21   19        3       2.301  -1.464   0.837  -1.674  -0.000   0.000
   26   22   21   19        3       2.301  -1.464   0.837  -1.674  -0.000   0.000
   26   22   21   23        3       0.628   1.883   0.000  -2.510  -0.000   0.000
   26   22   21   24        3       0.628   1.883   0.000  -2.510  -0.000   0.000
   25   22   21   23        3       0.628   1.883   0.000  -2.510  -0.000   0.000
   25   22   21   24        3       0.628   1.883   0.000  -2.510  -0.000   0.000
   18   15   12    7        3      30.334   0.000  -30.334  -0.000  -0.000   0.000
   16   13    7   12        3      30.334   0.000  -30.334  -0.000  -0.000   0.000
   18   15   19   17        3      30.334   0.000  -30.334  -0.000  -0.000   0.000
   20   17   19   15        3      30.334   0.000  -30.334  -0.000  -0.000   0.000
   20   17   13    7        3      30.334   0.000  -30.334  -0.000  -0.000   0.000
   14   12    7   13        3      30.334   0.000  -30.334  -0.000  -0.000   0.000
   16   13    7    4        3      30.334   0.000  -30.334  -0.000  -0.000   0.000
   14   12    7    4        3      30.334   0.000  -30.334  -0.000  -0.000   0.000
   20   17   13   16        3      30.334   0.000  -30.334  -0.000  -0.000   0.000
   18   15   12   14        3      30.334   0.000  -30.334  -0.000  -0.000   0.000
    8    4    3    5        3       0.000   0.000   0.000  -0.000  -0.000   0.000
    8    4    3    2        3       0.000   0.000   0.000  -0.000  -0.000   0.000
   24   21   19   17        3       0.000   0.000   0.000  -0.000  -0.000   0.000
   23   21   19   15        3       0.000   0.000   0.000  -0.000  -0.000   0.000
   24   21   19   15        3       0.000   0.000   0.000  -0.000  -0.000   0.000
   23   21   19   17        3       0.000   0.000   0.000  -0.000  -0.000   0.000
   11    6    4    3        3      -0.209  -0.628   0.000   0.837  -0.000   0.000
    9    6    4    3        3      -0.209  -0.628   0.000   0.837  -0.000   0.000
   10    6    4    3        3      -0.209  -0.628   0.000   0.837  -0.000   0.000
   10    6    4    7        3       0.967   2.900   0.000  -3.866  -0.000   0.000
    9    6    4    7        3       0.967   2.900   0.000  -3.866  -0.000   0.000
   27   22   21   19        3       0.967   2.900   0.000  -3.866  -0.000   0.000
   11    6    4    7        3       0.967   2.900   0.000  -3.866  -0.000   0.000
   30   25   22   26        3       0.628   1.883   0.000  -2.510  -0.000   0.000
   33   26   22   21        3       0.628   1.883   0.000  -2.510  -0.000   0.000
   32   26   22   21        3       0.628   1.883   0.000  -2.510  -0.000   0.000
   33   26   22   25        3       0.628   1.883   0.000  -2.510  -0.000   0.000
   28   25   22   26        3       0.628   1.883   0.000  -2.510  -0.000   0.000
   28   25   22   21        3       0.628   1.883   0.000  -2.510  -0.000   0.000
   32   26   22   25        3       0.628   1.883   0.000  -2.510  -0.000   0.000
   31   26   22   21        3       0.628   1.883   0.000  -2.510  -0.000   0.000
   31   26   22   25        3       0.628   1.883   0.000  -2.510  -0.000   0.000
   29   25   22   26        3       0.628   1.883   0.000  -2.510  -0.000   0.000
   30   25   22   21        3       0.628   1.883   0.000  -2.510  -0.000   0.000
   29   25   22   21        3       0.628   1.883   0.000  -2.510  -0.000   0.000
   27   22   21   24        3       0.628   1.883   0.000  -2.510  -0.000   0.000
   10    6    4    8        3       0.628   1.883   0.000  -2.510  -0.000   0.000
   33   26   22   27        3       0.628   1.883   0.000  -2.510  -0.000   0.000
   31   26   22   27        3       0.628   1.883   0.000  -2.510  -0.000   0.000
   11    6    4    8        3       0.628   1.883   0.000  -2.510  -0.000   0.000
    9    6    4    8        3       0.628   1.883   0.000  -2.510  -0.000   0.000
   30   25   22   27        3       0.628   1.883   0.000  -2.510  -0.000   0.000
   29   25   22   27        3       0.628   1.883   0.000  -2.510  -0.000   0.000
   32   26   22   27        3       0.628   1.883   0.000  -2.510  -0.000   0.000
   27   22   21   23        3       0.628   1.883   0.000  -2.510  -0.000   0.000
   28   25   22   27        3       0.628   1.883   0.000  -2.510  -0.000   0.000
    5    3    2    1        3      23.012   0.000  -23.012  -0.000  -0.000   0.000

[ pairs ]
     1     4    1
     1     5    1
     2     6    1
     2     7    1
     2     8    1
     5     6    1
     5     7    1
     3     9    1
     5     8    1
     3    10    1
     3    11    1
     3    12    1
     7     9    1
     3    13    1
     8     9    1
     7    10    1
     8    10    1
     7    11    1
     6    12    1
     4    14    1
     8    11    1
     6    13    1
     4    15    1
     8    12    1
     4    16    1
     8    13    1
     4    17    1
     7    18    1
     7    19    1
    13    14    1
     7    20    1
    13    15    1
    12    16    1
    12    17    1
    14    18    1
    14    19    1
    12    21    1
    13    21    1
    17    18    1
    16    19    1
    15    20    1
    16    20    1
    15    22    1
    15    23    1
    18    21    1
    17    22    1
    15    24    1
    17    23    1
    20    21    1
    17    24    1
    19    25    1
    19    26    1
    19    27    1
    23    25    1
    24    25    1
    23    26    1
    21    28    1
    24    26    1
    23    27    1
    21    29    1
    24    27    1
    21    30    1
    21    31    1
    21    32    1
    26    28    1
    21    33    1
    27    28    1
    26    29    1
    27    29    1
    26    30    1
    25    31    1
    27    30    1
    25    32    1
    27    31    1
    25    33    1
    27    32    1
    27    33    1

