[ moleculetype ]
; Name               nrexcl
MEN                   3
[ atoms ]
;   nr       type  resnr residue  atom   cgnr     charge       mass  
     1   opls_800      1    MEN   C      1    -0.1206    12.0110 
     2   opls_801      1    MEN   C      1    -0.1677    12.0110 
     3   opls_802      1    MEN   C      1     0.0939    12.0110 
     4   opls_803      1    MEN   C      1    -0.1774    12.0110 
     5   opls_804      1    MEN   C      1    -0.1639    12.0110 
     6   opls_805      1    MEN   C      1    -0.1659    12.0110 
     7   opls_806      1    MEN   C      1    -0.1116    12.0110 
     8   opls_807      1    MEN   C      1    -0.2266    12.0110 
     9   opls_808      1    MEN   C      1    -0.2420    12.0110 
    10   opls_809      1    MEN   C      1    -0.2345    12.0110 
    11   opls_810      1    MEN   O      1    -0.5877    15.9990 
    12   opls_811      1    MEN   H      1     0.0928     1.0080 
    13   opls_812      1    MEN   H      1     0.0928     1.0080 
    14   opls_813      1    MEN   H      1     0.1019     1.0080 
    15   opls_814      1    MEN   H      1     0.1019     1.0080 
    16   opls_815      1    MEN   H      1     0.0888     1.0080 
    17   opls_816      1    MEN   H      1     0.0888     1.0080 
    18   opls_817      1    MEN   H      1     0.0888     1.0080 
    19   opls_818      1    MEN   H      1     0.0780     1.0080 
    20   opls_819      1    MEN   H      1     0.0780     1.0080 
    21   opls_820      1    MEN   H      1     0.0780     1.0080 
    22   opls_821      1    MEN   H      1     0.0829     1.0080 
    23   opls_822      1    MEN   H      1     0.1034     1.0080 
    24   opls_823      1    MEN   H      1     0.4069     1.0080 
    25   opls_824      1    MEN   H      1     0.0845     1.0080 
    26   opls_825      1    MEN   H      1     0.0961     1.0080 
    27   opls_826      1    MEN   H      1     0.0961     1.0080 
    28   opls_827      1    MEN   H      1     0.0800     1.0080 
    29   opls_828      1    MEN   H      1     0.0800     1.0080 
    30   opls_829      1    MEN   H      1     0.0800     1.0080 
    31   opls_830      1    MEN   H      1     0.1043     1.0080 
[ bonds ]
    2     1     1      0.1529 224262.400
    3     2     1      0.1529 224262.400
    4     3     1      0.1529 224262.400
    5     4     1      0.1529 224262.400
    6     1     1      0.1529 224262.400
    7     4     1      0.1529 224262.400
    8     7     1      0.1529 224262.400
    9     7     1      0.1529 224262.400
   10     1     1      0.1529 224262.400
   11     3     1      0.1410 267776.000
   12     6     1      0.1090 284512.000
   13     6     1      0.1090 284512.000
   14     5     1      0.1090 284512.000
   15     5     1      0.1090 284512.000
   16     8     1      0.1090 284512.000
   17     8     1      0.1090 284512.000
   18     8     1      0.1090 284512.000
   19     9     1      0.1090 284512.000
   20     9     1      0.1090 284512.000
   21     9     1      0.1090 284512.000
   22     7     1      0.1090 284512.000
   23     4     1      0.1090 284512.000
   24    11     1      0.0945 462750.400
   25     3     1      0.1090 284512.000
   26     2     1      0.1090 284512.000
   27     2     1      0.1090 284512.000
   28    10     1      0.1090 284512.000
   29    10     1      0.1090 284512.000
   30    10     1      0.1090 284512.000
   31     1     1      0.1090 284512.000
    6     5     1      0.1529 224262.400

[ angles ]
;  ai    aj    ak funct            c0            c1            c2            c3 
    1     2     3     1    112.700    488.273
    2     3     4     1    112.700    488.273
    3     4     5     1    112.700    488.273
    2     1     6     1    112.700    488.273
    3     4     7     1    112.700    488.273
    4     7     8     1    112.700    488.273
    4     7     9     1    112.700    488.273
    2     1    10     1    112.700    488.273
    2     3    11     1    109.500    418.400
    1     6    12     1    110.700    313.800
    1     6    13     1    110.700    313.800
    4     5    14     1    110.700    313.800
    4     5    15     1    110.700    313.800
    7     8    16     1    110.700    313.800
    7     8    17     1    110.700    313.800
    7     8    18     1    110.700    313.800
    7     9    19     1    110.700    313.800
    7     9    20     1    110.700    313.800
    7     9    21     1    110.700    313.800
    4     7    22     1    110.700    313.800
    3     4    23     1    110.700    313.800
    3    11    24     1    108.500    460.240
    2     3    25     1    110.700    313.800
    1     2    26     1    110.700    313.800
    1     2    27     1    110.700    313.800
    1    10    28     1    110.700    313.800
    1    10    29     1    110.700    313.800
    1    10    30     1    110.700    313.800
    2     1    31     1    110.700    313.800
   16     8    17     1    107.800    276.144
    5     6    13     1    110.700    313.800
   12     6    13     1    107.800    276.144
   26     2    27     1    107.800    276.144
    3     2    26     1    110.700    313.800
    4     5     6     1    112.700    488.273
    6     5    14     1    110.700    313.800
   28    10    29     1    107.800    276.144
    4     3    11     1    109.500    418.400
    6     1    31     1    110.700    313.800
    8     7     9     1    112.700    488.273
   17     8    18     1    107.800    276.144
    7     4    23     1    110.700    313.800
   20     9    21     1    107.800    276.144
   11     3    25     1    109.500    292.880
    5     6    12     1    110.700    313.800
    3     2    27     1    110.700    313.800
    6     5    15     1    110.700    313.800
    4     3    25     1    110.700    313.800
    9     7    22     1    110.700    313.800
    5     4    23     1    110.700    313.800
   19     9    21     1    107.800    276.144
    8     7    22     1    110.700    313.800
    6     1    10     1    112.700    488.273
   16     8    18     1    107.800    276.144
    1     6     5     1    112.700    488.273
   28    10    30     1    107.800    276.144
    5     4     7     1    112.700    488.273
   14     5    15     1    107.800    276.144
   10     1    31     1    110.700    313.800
   29    10    30     1    107.800    276.144
   19     9    20     1    107.800    276.144

[ dihedrals ]
; IMPROPER DIHEDRAL ANGLES 
;  ai    aj    ak    al funct            c0            c1            c2            c3            c4            c5

[ dihedrals ]
; PROPER DIHEDRAL ANGLES
;  ai    aj    ak    al funct            c0            c1            c2            c3            c4            c5
    4    3    2    1        3       2.301  -1.464   0.837  -1.674  -0.000   0.000
    8    7    4    5        3       2.301  -1.464   0.837  -1.674  -0.000   0.000
   10    1    2    3        3       2.301  -1.464   0.837  -1.674  -0.000   0.000
    6    5    4    3        3       2.301  -1.464   0.837  -1.674  -0.000   0.000
    7    4    3    2        3       2.301  -1.464   0.837  -1.674  -0.000   0.000
    5    6    1    2        3       2.301  -1.464   0.837  -1.674  -0.000   0.000
    4    5    6    1        3       2.301  -1.464   0.837  -1.674  -0.000   0.000
   10    1    6    5        3       2.301  -1.464   0.837  -1.674  -0.000   0.000
    9    7    4    3        3       2.301  -1.464   0.837  -1.674  -0.000   0.000
    9    7    4    5        3       2.301  -1.464   0.837  -1.674  -0.000   0.000
    5    4    3    2        3       2.301  -1.464   0.837  -1.674  -0.000   0.000
    6    1    2    3        3       2.301  -1.464   0.837  -1.674  -0.000   0.000
    8    7    4    3        3       2.301  -1.464   0.837  -1.674  -0.000   0.000
    7    4    5    6        3       2.301  -1.464   0.837  -1.674  -0.000   0.000
   13    6    1   10        3       0.628   1.883   0.000  -2.510  -0.000   0.000
   17    8    7    9        3       0.628   1.883   0.000  -2.510  -0.000   0.000
   23    4    3    2        3       0.628   1.883   0.000  -2.510  -0.000   0.000
   13    6    5    4        3       0.628   1.883   0.000  -2.510  -0.000   0.000
   15    5    4    7        3       0.628   1.883   0.000  -2.510  -0.000   0.000
   26    2    1    6        3       0.628   1.883   0.000  -2.510  -0.000   0.000
   12    6    5    4        3       0.628   1.883   0.000  -2.510  -0.000   0.000
   22    7    4    3        3       0.628   1.883   0.000  -2.510  -0.000   0.000
   18    8    7    4        3       0.628   1.883   0.000  -2.510  -0.000   0.000
   15    5    4    3        3       0.628   1.883   0.000  -2.510  -0.000   0.000
   14    5    6    1        3       0.628   1.883   0.000  -2.510  -0.000   0.000
   15    5    6    1        3       0.628   1.883   0.000  -2.510  -0.000   0.000
   12    6    1    2        3       0.628   1.883   0.000  -2.510  -0.000   0.000
   27    2    3    4        3       0.628   1.883   0.000  -2.510  -0.000   0.000
   30   10    1    2        3       0.628   1.883   0.000  -2.510  -0.000   0.000
   13    6    1    2        3       0.628   1.883   0.000  -2.510  -0.000   0.000
   25    3    2    1        3       0.628   1.883   0.000  -2.510  -0.000   0.000
   27    2    1    6        3       0.628   1.883   0.000  -2.510  -0.000   0.000
   31    1    2    3        3       0.628   1.883   0.000  -2.510  -0.000   0.000
   18    8    7    9        3       0.628   1.883   0.000  -2.510  -0.000   0.000
   31    1    6    5        3       0.628   1.883   0.000  -2.510  -0.000   0.000
   19    9    7    8        3       0.628   1.883   0.000  -2.510  -0.000   0.000
   14    5    4    3        3       0.628   1.883   0.000  -2.510  -0.000   0.000
   14    5    4    7        3       0.628   1.883   0.000  -2.510  -0.000   0.000
   23    4    7    8        3       0.628   1.883   0.000  -2.510  -0.000   0.000
   21    9    7    8        3       0.628   1.883   0.000  -2.510  -0.000   0.000
   20    9    7    8        3       0.628   1.883   0.000  -2.510  -0.000   0.000
   27    2    1   10        3       0.628   1.883   0.000  -2.510  -0.000   0.000
   26    2    1   10        3       0.628   1.883   0.000  -2.510  -0.000   0.000
   22    7    4    5        3       0.628   1.883   0.000  -2.510  -0.000   0.000
   29   10    1    6        3       0.628   1.883   0.000  -2.510  -0.000   0.000
   23    4    5    6        3       0.628   1.883   0.000  -2.510  -0.000   0.000
   28   10    1    2        3       0.628   1.883   0.000  -2.510  -0.000   0.000
   25    3    4    7        3       0.628   1.883   0.000  -2.510  -0.000   0.000
   25    3    4    5        3       0.628   1.883   0.000  -2.510  -0.000   0.000
   19    9    7    4        3       0.628   1.883   0.000  -2.510  -0.000   0.000
   28   10    1    6        3       0.628   1.883   0.000  -2.510  -0.000   0.000
   20    9    7    4        3       0.628   1.883   0.000  -2.510  -0.000   0.000
   29   10    1    2        3       0.628   1.883   0.000  -2.510  -0.000   0.000
   16    8    7    4        3       0.628   1.883   0.000  -2.510  -0.000   0.000
   21    9    7    4        3       0.628   1.883   0.000  -2.510  -0.000   0.000
   12    6    1   10        3       0.628   1.883   0.000  -2.510  -0.000   0.000
   23    4    7    9        3       0.628   1.883   0.000  -2.510  -0.000   0.000
   16    8    7    9        3       0.628   1.883   0.000  -2.510  -0.000   0.000
   26    2    3    4        3       0.628   1.883   0.000  -2.510  -0.000   0.000
   17    8    7    4        3       0.628   1.883   0.000  -2.510  -0.000   0.000
   30   10    1    6        3       0.628   1.883   0.000  -2.510  -0.000   0.000
   22    7    9   20        3       0.628   1.883   0.000  -2.510  -0.000   0.000
   22    7    8   18        3       0.628   1.883   0.000  -2.510  -0.000   0.000
   31    1   10   30        3       0.628   1.883   0.000  -2.510  -0.000   0.000
   27    2    3   25        3       0.628   1.883   0.000  -2.510  -0.000   0.000
   31    1   10   29        3       0.628   1.883   0.000  -2.510  -0.000   0.000
   31    1    2   26        3       0.628   1.883   0.000  -2.510  -0.000   0.000
   22    7    9   19        3       0.628   1.883   0.000  -2.510  -0.000   0.000
   23    4    5   14        3       0.628   1.883   0.000  -2.510  -0.000   0.000
   25    3    4   23        3       0.628   1.883   0.000  -2.510  -0.000   0.000
   15    5    6   13        3       0.628   1.883   0.000  -2.510  -0.000   0.000
   23    4    5   15        3       0.628   1.883   0.000  -2.510  -0.000   0.000
   22    7    9   21        3       0.628   1.883   0.000  -2.510  -0.000   0.000
   14    5    6   13        3       0.628   1.883   0.000  -2.510  -0.000   0.000
   15    5    6   12        3       0.628   1.883   0.000  -2.510  -0.000   0.000
   31    1    2   27        3       0.628   1.883   0.000  -2.510  -0.000   0.000
   31    1    6   12        3       0.628   1.883   0.000  -2.510  -0.000   0.000
   14    5    6   12        3       0.628   1.883   0.000  -2.510  -0.000   0.000
   22    7    8   17        3       0.628   1.883   0.000  -2.510  -0.000   0.000
   31    1   10   28        3       0.628   1.883   0.000  -2.510  -0.000   0.000
   31    1    6   13        3       0.628   1.883   0.000  -2.510  -0.000   0.000
   22    7    8   16        3       0.628   1.883   0.000  -2.510  -0.000   0.000
   26    2    3   25        3       0.628   1.883   0.000  -2.510  -0.000   0.000
   23    4    7   22        3       0.628   1.883   0.000  -2.510  -0.000   0.000
   23    4    3   11        3       0.979   2.937   0.000  -3.916  -0.000   0.000
   26    2    3   11        3       0.979   2.937   0.000  -3.916  -0.000   0.000
   27    2    3   11        3       0.979   2.937   0.000  -3.916  -0.000   0.000
   25    3   11   24        3       0.736   2.209   0.000  -2.946  -0.000   0.000
   24   11    3    4        3      -0.444   3.833   0.728  -4.117  -0.000   0.000
   24   11    3    2        3      -0.444   3.833   0.728  -4.117  -0.000   0.000
   11    3    2    1        3      -3.247   3.247   0.000  -0.000  -0.000   0.000
   11    3    4    5        3      -3.247   3.247   0.000  -0.000  -0.000   0.000
   11    3    4    7        3      -3.247   3.247   0.000  -0.000  -0.000   0.000

[ pairs ]
     1     4    1
     2     5    1
     3     6    1
     2     7    1
     3     8    1
     3     9    1
     1    11    1
     6     7    1
     5     8    1
     3    10    1
     5     9    1
     2    12    1
     5    10    1
     2    13    1
     1    14    1
     5    11    1
     4    12    1
     1    15    1
     4    13    1
     3    14    1
     7    11    1
     3    15    1
     4    16    1
     7    14    1
     4    17    1
    10    12    1
     7    15    1
     4    18    1
    10    13    1
     4    19    1
     4    20    1
     9    16    1
     4    21    1
     3    22    1
     2    23    1
    12    14    1
     9    17    1
     2    24    1
     1    25    1
    13    14    1
    12    15    1
     9    18    1
     8    19    1
     5    22    1
    13    15    1
     8    20    1
     4    24    1
     8    21    1
     6    23    1
     5    25    1
     4    26    1
     2    28    1
     8    23    1
     4    27    1
     2    29    1
     9    23    1
     7    25    1
     6    26    1
     2    30    1
     6    27    1
    11    23    1
     6    28    1
     3    31    1
     6    29    1
    10    26    1
     6    30    1
     5    31    1
    14    23    1
    11    26    1
    10    27    1
    16    22    1
    15    23    1
    11    27    1
    17    22    1
    18    22    1
    19    22    1
    20    22    1
    21    22    1
    12    31    1
    13    31    1
    22    23    1
    23    25    1
    24    25    1
    25    26    1
    25    27    1
    26    31    1
    27    31    1
    28    31    1
    29    31    1
    30    31    1

