[ moleculetype ]
; Name        nrexcl
SOL          3

[ atoms ]
;   nr  type       resnr  resid  atom   cgnr  charge     mass
     1  opls_117     1     SOL    H     1      0.417     1.008
     2  opls_117     1     SOL    H     1      0.417     1.008
     3  opls_116     1     SOL    O     1     -0.834    15.9994

[ bonds ]
;   ai  aj   func   r0      k
     3   1   1     0.100   464400.0
     3   2   1     0.100   464400.0
     1   2   2     0.157   387400.0

[ angles ]
;   ai  aj   ak   func   theta0    k
     1   3   2   1     109.47     557.4

[ exclusions ]
; Exclude interactions between certain pairs of atoms
     1   2
     1   3
     2   3
