[ moleculetype ]
; Name               nrexcl
THY                   3
[ atoms ]
;   nr       type  resnr residue  atom   cgnr     charge       mass  
     1   opls_800      1    THY   C        1    -0.4779    12.0110 
     2   opls_801      1    THY   C        1    -0.1240    12.0110 
     3   opls_802      1    THY   C        1    -0.1289    12.0110 
     4   opls_803      1    THY   C        1    -0.2438    12.0110 
     5   opls_804      1    THY   C        1     0.0024    12.0110 
     6   opls_805      1    THY   C        1    -0.2351    12.0110 
     7   opls_806      1    THY   C        1    -0.4692    12.0110 
     8   opls_807      1    THY   C        1    -0.4469    12.0110 
     9   opls_808      1    THY   C        1    -0.1164    12.0110 
    10   opls_809      1    THY   C        1    -0.1994    12.0110 
    11   opls_810      1    THY   O        1    -0.5372    15.9990 
    12   opls_811      1    THY   H        1     0.2926     1.0080 
    13   opls_812      1    THY   H        1     0.5886     1.0080 
    14   opls_813      1    THY   H        1     0.1016     1.0080 
    15   opls_814      1    THY   H        1     0.3093     1.0080 
    16   opls_815      1    THY   H        1     0.1032     1.0080 
    17   opls_816      1    THY   H        1     0.1032     1.0080 
    18   opls_817      1    THY   H        1     0.1032     1.0080 
    19   opls_818      1    THY   H        1     0.3196     1.0080 
    20   opls_819      1    THY   H        1     0.1221     1.0080 
    21   opls_820      1    THY   H        1     0.1975     1.0080 
    22   opls_821      1    THY   H        1    -0.0249     1.0080 
    23   opls_822      1    THY   H        1     0.3774     1.0080 
    24   opls_823      1    THY   H        1    -0.0487     1.0080 
    25   opls_824      1    THY   H        1     0.4318     1.0080 
[ bonds ]
    2     1     1      0.1510 265265.600
    3     1     1      0.1529 224262.400
    4     1     1      0.1529 224262.400
    5     2     1      0.1433 357313.600
    6     2     1      0.1433 357313.600
    7     8     1      0.1510 265265.600
    8     5     1      0.1340 459403.200
    9     6     1      0.1340 459403.200
   10     7     1      0.1529 224262.400
   11     5     1      0.1370 376560.000
   12     1     1      0.1090 284512.000
   13     3     1      0.1090 284512.000
   14     3     1      0.1090 284512.000
   15     3     1      0.1090 284512.000
   16     4     1      0.1090 284512.000
   17     4     1      0.1090 284512.000
   18     4     1      0.1090 284512.000
   19     6     1      0.1120 313348.128
   20     8     1      0.1080 307105.600
   21     9     1      0.1080 307105.600
   22    10     1      0.1090 284512.000
   23    10     1      0.1090 284512.000
   24    10     1      0.1090 284512.000
   25    11     1      0.0945 462750.400
    9     7     1      0.1510 265265.600

[ angles ]
;  ai    aj    ak funct            c0            c1            c2            c3 
    2     1     3     1    114.000    527.184
    2     1     4     1    114.000    527.184
    1     2     5     1    118.990    539.820
    1     2     6     1    118.990    539.820
    5     8     7     1    124.000    585.760
    2     5     8     1    117.000    711.280
    2     6     9     1    117.000    711.280
    8     7    10     1    111.100    527.184
    2     5    11     1    115.690    382.752
    2     1    12     1    109.500    292.880
    1     3    13     1    110.700    313.800
    1     3    14     1    110.700    313.800
    1     3    15     1    110.700    313.800
    1     4    16     1    110.700    313.800
    1     4    17     1    110.700    313.800
    1     4    18     1    110.700    313.800
    2     6    19     1    115.690    382.752
    5     8    20     1    118.760    505.678
    6     9    21     1    118.760    505.678
    7    10    22     1    110.700    313.800
    7    10    23     1    110.700    313.800
    7    10    24     1    110.700    313.800
    5    11    25     1    109.000    292.880
   13     3    15     1    107.800    276.144
    9     7    10     1    111.100    527.184
   22    10    23     1    107.800    276.144
    3     1     4     1    112.700    488.273
    8     7     9     1    112.400    527.184
   17     4    18     1    107.800    276.144
    7     8    20     1    118.760    505.678
    4     1    12     1    110.700    313.800
   16     4    17     1    107.800    276.144
    6     9     7     1    124.000    585.760
    9     6    19     1    115.690    382.752
    8     5    11     1    123.000    585.760
   22    10    24     1    107.800    276.144
    7     9    21     1    118.760    505.678
   14     3    15     1    107.800    276.144
    5     2     6     1    118.990    539.820
   13     3    14     1    107.800    276.144
   23    10    24     1    107.800    276.144
    3     1    12     1    110.700    313.800
   16     4    18     1    107.800    276.144

[ dihedrals ]
; IMPROPER DIHEDRAL ANGLES 
;  ai    aj    ak    al funct            c0            c1            c2            c3            c4            c5
     6     2     1     5    4        180.000     10.460     2  
    19     6     2     9    4        180.000     10.460     2  
    20     8     5     7    4        180.000     10.460     2  
    21     9     6     7    4        180.000     10.460     2  
    11     5     2     8    4        180.000     10.460     2  

[ dihedrals ]
; PROPER DIHEDRAL ANGLES
;  ai    aj    ak    al funct            c0            c1            c2            c3            c4            c5
    5    2    1    3        3       0.000   0.000   0.000  -0.000  -0.000   0.000
    6    2    1    4        3       0.000   0.000   0.000  -0.000  -0.000   0.000
    5    2    1    4        3       0.000   0.000   0.000  -0.000  -0.000   0.000
    6    2    1    3        3       0.000   0.000   0.000  -0.000  -0.000   0.000
    9    6    2    5        3      16.027  -4.391  -14.029   2.393  -0.000   0.000
    8    5    2    6        3      16.027  -4.391  -14.029   2.393  -0.000   0.000
    8    5    2    1        3      16.027  -4.391  -14.029   2.393  -0.000   0.000
    9    6    2    1        3      16.027  -4.391  -14.029   2.393  -0.000   0.000
    8    7    9    6        3       0.527  -6.397  -1.695   7.565  -0.000   0.000
    9    7    8    5        3       0.527  -6.397  -1.695   7.565  -0.000   0.000
    7    8    5    2        3      58.576   0.000  -58.576  -0.000  -0.000   0.000
    7    9    6    2        3      58.576   0.000  -58.576  -0.000  -0.000   0.000
   10    7    9    6        3       0.527  -6.397  -1.695   7.565  -0.000   0.000
   10    7    8    5        3       0.527  -6.397  -1.695   7.565  -0.000   0.000
   19    6    2    5        3      -0.778  -2.335   0.000   3.113  -0.000   0.000
   19    6    2    1        3      -0.778  -2.335   0.000   3.113  -0.000   0.000
   19    6    9    7        3      58.576   0.000  -58.576  -0.000  -0.000   0.000
   21    9    6    2        3      58.576   0.000  -58.576  -0.000  -0.000   0.000
   20    8    5    2        3      58.576   0.000  -58.576  -0.000  -0.000   0.000
   21    9    6   19        3      58.576   0.000  -58.576  -0.000  -0.000   0.000
   20    8    5   11        3      58.576   0.000  -58.576  -0.000  -0.000   0.000
   21    9    7    8        3      -33.472   0.000  33.472  -0.000  -0.000   0.000
   20    8    7    9        3      -33.472   0.000  33.472  -0.000  -0.000   0.000
   21    9    7   10        3      -33.472   0.000  33.472  -0.000  -0.000   0.000
   20    8    7   10        3      -33.472   0.000  33.472  -0.000  -0.000   0.000
   12    1    2    6        3       0.000   0.000   0.000  -0.000  -0.000   0.000
   12    1    2    5        3       0.000   0.000   0.000  -0.000  -0.000   0.000
   15    3    1    2        3       0.967   2.900   0.000  -3.866  -0.000   0.000
   13    3    1    2        3       0.967   2.900   0.000  -3.866  -0.000   0.000
   14    3    1    2        3       0.967   2.900   0.000  -3.866  -0.000   0.000
   16    4    1    2        3       0.967   2.900   0.000  -3.866  -0.000   0.000
   18    4    1    2        3       0.967   2.900   0.000  -3.866  -0.000   0.000
   17    4    1    2        3       0.967   2.900   0.000  -3.866  -0.000   0.000
   23   10    7    9        3       0.766   2.297   0.000  -3.063  -0.000   0.000
   24   10    7    9        3       0.766   2.297   0.000  -3.063  -0.000   0.000
   22   10    7    8        3       0.766   2.297   0.000  -3.063  -0.000   0.000
   23   10    7    8        3       0.766   2.297   0.000  -3.063  -0.000   0.000
   24   10    7    8        3       0.766   2.297   0.000  -3.063  -0.000   0.000
   22   10    7    9        3       0.766   2.297   0.000  -3.063  -0.000   0.000
   16    4    1    3        3       0.628   1.883   0.000  -2.510  -0.000   0.000
   14    3    1    4        3       0.628   1.883   0.000  -2.510  -0.000   0.000
   17    4    1    3        3       0.628   1.883   0.000  -2.510  -0.000   0.000
   15    3    1    4        3       0.628   1.883   0.000  -2.510  -0.000   0.000
   18    4    1    3        3       0.628   1.883   0.000  -2.510  -0.000   0.000
   13    3    1    4        3       0.628   1.883   0.000  -2.510  -0.000   0.000
   17    4    1   12        3       0.628   1.883   0.000  -2.510  -0.000   0.000
   14    3    1   12        3       0.628   1.883   0.000  -2.510  -0.000   0.000
   16    4    1   12        3       0.628   1.883   0.000  -2.510  -0.000   0.000
   13    3    1   12        3       0.628   1.883   0.000  -2.510  -0.000   0.000
   15    3    1   12        3       0.628   1.883   0.000  -2.510  -0.000   0.000
   18    4    1   12        3       0.628   1.883   0.000  -2.510  -0.000   0.000
   25   11    5    2        3       7.037   0.000  -7.037  -0.000  -0.000   0.000
   25   11    5    8        3       7.037   0.000  -7.037  -0.000  -0.000   0.000
   11    5    2    6        3       8.786   0.000  -8.786  -0.000  -0.000   0.000
   11    5    2    1        3      30.334   0.000  -30.334  -0.000  -0.000   0.000
   11    5    8    7        3      58.576   0.000  -58.576  -0.000  -0.000   0.000

[ pairs ]
     3     5    1
     4     5    1
     3     6    1
     2     7    1
     1     8    1
     4     6    1
     1     9    1
     1    11    1
     6     8    1
     5     9    1
     5    10    1
     2    13    1
     6    10    1
     2    14    1
     6    11    1
     5    12    1
     4    13    1
     2    15    1
     7    11    1
     6    12    1
     4    14    1
     2    16    1
     4    15    1
     3    16    1
     2    17    1
     3    17    1
     2    18    1
     1    19    1
     3    18    1
     2    20    1
     2    21    1
     5    19    1
    12    13    1
    12    14    1
     7    19    1
    12    15    1
     2    25    1
    12    16    1
    12    17    1
     9    20    1
     8    21    1
    12    18    1
    10    20    1
     8    22    1
    11    20    1
    10    21    1
     9    22    1
     8    23    1
     9    23    1
     8    24    1
     9    24    1
     8    25    1
    19    21    1

